147
Time=25.00000000 pbc="T T T" Lattice="23.91741943 -0.00000074 0.00000214 -0.00000037 11.95871544 -0.00000316 0.00000107 -0.00000316 11.95871735" energy=-1151.33341599 virial="-44.99912487 -2.98290674 7.17370064 -2.98290674 -20.50371966 2.08411462 7.17370064 2.08411462 -34.01716814" stress="-0.01161023 -0.00078317 0.00220527 -0.00078317 -0.00509450 0.00061849 0.00220527 0.00061849 -0.00873778" Properties=species:S:1:pos:R:3:vel:R:3:forces:R:3
O 3.67629502 5.33540584 4.58329907 -0.00514485 0.00099419 -0.00081258 -0.29857990 -0.26850692 -0.65917222
O 9.26239526 2.47789898 1.03369462 0.00063681 0.00041006 -0.00336089 1.04509548 0.30794131 -0.41120372
O 5.76915430 8.61868642 10.63194716 0.00087574 0.00232067 0.00620479 1.03592401 1.56391304 -0.02356554
O 9.16455589 2.64835899 8.04613669 0.00496879 0.00584513 -0.00096923 0.10580865 -0.36108926 0.23634637
O 0.69019787 8.58723001 10.69483340 -0.00787942 -0.00158725 -0.00011625 -0.43691170 2.07250150 -0.05992958
O 5.97307457 2.80804931 4.62719261 0.00931782 0.00605272 -0.00134926 -0.29006839 -0.19635643 0.38587918
O 3.22291752 8.58383386 0.98046935 -0.00303659 0.00191020 0.00204330 0.23985831 -0.58186012 0.11462651
O 9.13816206 5.03935952 10.57553871 0.00107375 0.00466929 0.00180609 -0.77245061 0.40792659 -0.43271870
O 3.07070217 8.63567874 7.98600864 -0.00427928 0.00171479 0.00222274 -0.34763693 0.95359714 -0.99766969
O 9.28846586 0.09760647 10.52009631 -0.00231748 -0.00386336 0.00310143 0.75207722 -0.41568768 0.08924391
O 3.13298485 0.04465813 4.47596602 -0.00205239 -0.00272264 0.00563094 0.12863365 0.23999636 0.61959008
O 0.80697954 2.39518106 4.43766336 0.00078730 -0.00273869 0.00517707 -0.55803187 0.12984495 1.14213427
O 4.74713480 3.89378997 2.61219454 0.00345154 -0.00023098 -0.00223876 -0.25912616 -0.32912004 -0.17487745
O 7.18657687 3.85710132 11.83808384 0.00869931 0.00116849 0.00854750 0.02706300 -0.99018535 1.61393763
O 4.36642929 6.63920051 11.59720561 0.00535073 -0.00179902 0.00019250 -0.06546756 -0.05942682 -0.01478112
O 4.48823199 3.91191285 6.64523997 -0.00012429 -0.00418135 -0.00463189 0.21648558 -0.56488313 0.15062385
O 7.01074020 3.80641886 9.32571162 -0.00398340 -0.00397634 0.00510391 0.32822496 -0.04461288 -0.73397233
O 4.60911602 6.86608730 9.03700319 -0.01175295 -0.00618768 0.00379872 -0.46882077 -0.23917718 -0.63414841
O 1.99442943 4.09192283 2.86517057 -0.00237081 -0.00196940 -0.00585521 0.71436009 -0.70683021 -0.08363571
O 11.12561785 3.98154372 11.77446809 0.00144576 0.00079752 0.00208077 0.26909403 -1.42689407 0.15925492
O 1.70766419 6.58756204 0.08812317 -0.00293979 0.00479122 0.00342791 0.13064008 0.01006637 -0.61324184
O 1.90172838 4.11473530 6.19460562 0.00534475 0.00129533 -0.00292950 -0.91521267 -0.40727326 -0.07809768
O 11.10917364 4.07807978 9.03216299 0.00250554 0.00155352 -0.00518703 0.38299516 -0.74379926 0.19874167
O 1.91778566 6.68624531 9.33008145 -0.00025607 -0.00216380 -0.00378882 -0.72141584 0.01418049 0.72778938
O 4.79284689 1.23986024 2.77071934 -0.00575493 0.00018237 0.00197115 1.38133366 0.49298590 -0.14287429
O 4.41517650 10.59091927 11.59491670 -0.00382361 0.00360580 0.00225358 0.23069090 0.26665325 -0.22262636
O 7.35227396 1.14269771 11.95677558 0.00754709 -0.00205608 0.00459283 -0.72606902 0.52995298 0.71121666
O 4.60704424 1.23055841 6.38456179 0.00151921 -0.00078388 -0.00374670 -0.45276564 0.27521799 -0.30324136
O 4.66860768 10.38767564 9.02778617 -0.00518955 -0.00130562 0.00348855 -1.19385193 0.64385286 -2.18289524
O 7.26209174 1.18255678 9.29574765 -0.00541083 -0.00170396 -0.00546376 0.01379795 1.86379235 -1.63795051
O 1.90689771 1.41943563 6.52139230 0.00297106 0.00298823 0.00258354 0.79254378 0.13448289 -0.06338802
O 11.24220305 1.28194929 9.08419525 0.00066782 -0.00406528 0.00509190 -0.33834384 0.93422297 -0.04358809
O 2.03894492 10.49569079 9.45563859 -0.00372023 0.00149577 0.00198722 0.48520828 0.40046306 -0.41388431
O 2.18066402 1.37386294 2.37994786 0.00423729 0.00175068 -0.00502516 0.36293028 -0.03848881 0.02756884
O 11.37391735 1.19412712 11.79190617 0.00338623 -0.00697445 -0.00732835 -0.62662993 0.71752834 -0.11636722
O 1.74769756 10.58203639 0.15842591 0.00430892 -0.00010459 -0.00599916 -0.47634694 0.19526366 -0.89810968
O 3.43452957 6.12525973 2.07922940 -0.00050770 0.00521297 0.00222557 0.10133630 0.34983652 -0.10990409
O 7.07447833 2.63402561 2.29753777 -0.00113081 -0.00100677 -0.00315245 -0.13508627 -0.26726050 -0.86005510
O 6.68286000 6.13468317 10.70314280 -0.00629656 0.00689259 -0.00247176 0.99331921 -0.53865981 -0.77057153
O 3.08366519 6.20872789 6.98685366 -0.00702749 0.00405800 0.00265740 0.13840175 -0.57279047 -0.89449801
O 6.76870349 2.42792563 6.98281636 -0.00258769 -0.00631011 -0.00341174 0.65520928 0.31346415 1.38027394
O 11.76737618 2.75680753 1.94076291 -0.00314744 0.00268235 -0.00562937 0.02187803 -0.46872132 0.40704096
O 11.49415386 6.25655274 10.45369113 0.00096320 0.00051458 -0.00657900 0.65016672 -0.02571613 -0.05227216
O 11.56301396 2.65578320 6.78057139 -0.00226414 0.00575431 -0.00285191 -0.82885272 0.43566260 1.56261951
O 3.48084075 10.96279926 2.05760668 0.00783957 0.00015727 -0.00183432 0.17018221 1.34865163 0.97121607
O 6.83759560 11.00109087 10.45277138 -0.00132624 0.00521350 0.00323033 -0.67909655 -1.38989947 0.35686111
O 2.97683306 11.07323485 6.91741828 -0.00357477 0.00346981 -0.00394005 0.55957433 -1.74288447 2.28177234
O 11.68933501 11.02658369 10.30467568 0.00207067 -0.00239960 -0.00315249 0.88966837 -1.54583755 0.11547181
Si 3.46023772 4.81877798 3.02577692 -0.00085535 -0.00338302 0.00053689 -0.04868205 0.06060067 0.28074849
Si 7.64679702 2.56022957 0.76565765 0.00090551 0.00059160 -0.00029097 1.03225965 -0.16494310 -0.15289140
Si 5.42802668 7.11635119 10.43206604 0.00243000 0.00131306 0.00044748 -1.33204536 -2.61336678 1.08831333
Si 3.30495367 4.87424165 6.09051606 -0.00307606 0.00000182 0.00525192 0.58126806 0.79181576 -0.12223689
Si 7.55691018 2.56107379 8.40745193 -0.00191964 0.00101279 -0.00533136 0.38272451 -0.54057915 -0.10942237
Si 10.84910932 2.55025278 0.61450319 -0.00521626 -0.00103575 0.00188830 -0.21457230 0.83030222 0.13813660
Si 0.90171041 7.03276044 10.64801726 -0.00001826 0.00205557 0.00011685 1.43894985 -2.36173579 -0.02033918
Si 10.80832795 2.65179041 8.26262994 -0.00577603 -0.00299507 0.00127913 -0.79111322 0.04798124 -0.67559878
Si 5.66459760 2.59432547 3.06364794 -0.00380879 -0.00031375 -0.00412604 -1.46497889 0.79745066 -0.11119146
Si 3.19516118 6.95618148 0.71225574 0.00063818 -0.00329871 -0.00082424 -0.58135264 0.84532471 -0.62835546
Si 7.55190635 4.74350895 10.54068630 -0.00260872 -0.00178606 0.00181709 -0.78437066 0.82012698 -0.20923157
Si 5.41628477 2.66079033 6.14924609 0.00212693 -0.00488519 -0.00333474 0.09198237 -0.72836907 0.14476348
Si 3.10366640 7.09126946 8.28900750 -0.00155846 0.00191804 0.00017537 0.54424230 -0.44682625 2.42606548
Si 3.24035145 10.17397983 0.66576049 0.00058998 -0.00060162 -0.00341750 0.08843304 -0.39342775 0.72148075
Si 7.71565557 0.36583574 10.58970438 0.00617850 0.00036397 -0.00158525 -0.51412153 0.47284295 -0.13148715
Si 3.17452817 10.20080064 8.33721144 0.00183148 0.00249048 -0.00204191 0.36108610 0.62224718 -0.55029716
Si 3.18456401 0.46237152 6.08520658 0.00642804 0.00105137 0.00273624 -0.45214475 1.25954094 -1.19256719
Si 1.04266473 10.17624511 10.69234172 -0.00044184 -0.00283368 0.00430277 0.71684765 -0.73768177 0.11126519
Si 3.42861181 0.42097248 2.91127708 0.00492909 -0.00191204 -0.00264821 -1.52567262 -1.03349348 0.06177416
Si 5.44053509 10.18420309 10.38327248 -0.00510902 0.00039532 -0.00706259 0.40044707 0.10643395 1.85828541
Si 1.06593414 2.74411237 6.01298510 -0.00056125 0.00461580 -0.00048023 1.12219732 -1.72947804 -0.66423901
Si 10.86593015 0.40940903 10.43120780 -0.00657780 -0.00352509 -0.00285462 0.02600803 1.44606661 -0.08611131
Si 1.25987738 2.60738160 2.92335171 -0.00070061 -0.00328154 0.00517708 -0.22295511 0.84428022 -1.02829997
Si 10.72241923 4.80378288 10.45177746 0.00079941 -0.00086986 0.00021383 0.79149464 1.04227349 -0.47727695
Au 7.31193263 5.24100328 5.50015842 0.00168255 0.00050955 0.00339196 -0.37144177 -0.15247564 -0.45105850
Au 6.12663997 6.26245815 7.53249071 -0.00413209 0.00077617 0.00121727 0.98130108 -0.28797189 -0.30965953
Au 8.90081823 5.55077636 7.47089398 0.00462747 0.00207992 -0.00009883 -0.32040823 0.15245595 0.66474216
O 15.68217508 5.28382694 4.51746678 -0.00879637 -0.00310024 -0.00124766 -0.80120725 -0.08761422 1.49474463
O 21.29358315 2.60210745 0.97353308 0.00078009 0.00148911 0.00118985 -0.01898712 -0.52900286 0.30791489
O 17.85322688 8.52780161 10.68426746 0.00035214 0.00292970 0.00361222 0.38305611 2.55839918 -0.49267362
O 21.22164063 2.53071364 8.02605590 0.00359087 0.00647634 -0.00151928 -1.32047351 0.38339080 0.53938503
O 12.67625803 8.58822769 10.51631342 -0.00442417 -0.00329225 -0.00737063 -0.19695064 1.76371729 -0.07453705
O 17.71491692 2.83311427 4.65011935 0.00260308 0.00586300 -0.00129892 -0.10414959 -0.50698565 -0.01957379
O 15.12353053 8.56146383 0.91595921 -0.00324150 0.00158746 -0.00199933 0.81691473 -0.63198770 -0.01870288
O 21.08730413 5.12491257 10.52653896 0.00028747 0.00020490 -0.00090682 -0.02701288 -0.28322096 -0.31269424
O 15.04064495 8.58893874 7.88196868 -0.00167679 -0.00042998 0.00345458 -0.34131813 0.98238246 -0.25955086
O 21.28831775 0.33136219 10.67409711 -0.00593638 0.00261616 0.00544982 -1.29017532 -0.57322424 -0.29685653
O 15.15184734 0.16813320 4.52399736 -0.00213466 0.00221989 0.00203284 -0.35161855 0.13839245 -0.71106021
O 12.67675011 2.41186175 4.46918992 -0.00387894 -0.00370755 -0.00173936 -0.13898497 0.00472725 -1.60002622
O 16.70099312 3.89646296 2.52145986 0.00213658 -0.00301184 -0.00487792 -0.00702372 -1.26363117 0.09182226
O 19.24776700 3.77105825 11.88278130 0.00681984 0.00230734 0.00496012 -0.54525170 0.31958135 -0.27535682
O 16.35571963 6.55987798 11.49908145 0.00307989 -0.00540298 -0.00022067 -1.43812566 0.19230598 1.34731667
O 16.49142671 4.01444519 6.66329091 0.00425409 0.00124751 -0.00174871 1.08640407 -1.16622596 0.57664412
O 19.14502621 3.90725505 9.14656092 0.00657672 -0.00293375 0.00518227 0.15071485 0.55531534 1.33763097
O 16.60434285 6.80138050 8.94687690 -0.00085175 -0.00819727 -0.00388917 1.89288323 0.17446930 0.82832974
O 13.92119306 4.09065115 2.83736206 -0.00655331 -0.00037052 -0.00611169 0.45778107 -0.48853863 0.01311589
O 23.17910529 4.02075266 11.79337097 0.00407650 0.00540609 0.00151524 -0.11695339 -0.96347881 -0.22461446
O 13.66400749 6.53072357 0.05000528 -0.00122209 0.00540401 -0.00059935 0.51174612 0.57499090 -0.73800395
O 13.90511105 3.97705578 6.22589405 0.00560159 -0.00026965 -0.00210953 0.11430741 0.64354068 -0.16513146
O 23.23418016 4.14531187 9.03370641 0.00218942 0.00504883 -0.00354005 -0.99268283 -1.41577708 0.31374414
O 13.97933952 6.57792708 9.30007462 0.00205472 -0.00465698 -0.00247462 -1.05153723 0.57221571 1.09666476
O 16.73641443 1.22288439 2.66067617 -0.00720779 0.00022115 -0.00086201 -0.93970344 -1.65166008 -0.22010945
O 16.48224934 10.60930549 11.66008893 -0.00069852 -0.00223762 0.00260659 -0.89069709 -0.29997177 0.77506020
O 19.24164026 1.14497310 0.07320882 0.01021361 -0.00222004 0.00376363 -0.70370884 -0.69754112 -0.13830744
O 16.50900054 1.25195902 6.44738299 0.00279421 -0.00092524 0.00398069 0.53927610 1.11812515 0.47344561
O 16.67973775 10.41610950 9.05336487 0.00223417 -0.00746695 0.00541111 0.49869548 -0.44082704 -0.22159256
O 19.10970777 1.18227654 9.30205320 -0.00176324 -0.00391187 0.00286064 0.60161868 1.28376871 -0.59721426
O 13.81621404 1.33701915 6.59005893 0.00162019 -0.00121504 0.00095268 0.55213448 -0.13249728 -0.12496244
O 23.17247011 1.32702987 9.14484276 0.00467410 -0.00703982 0.00764597 0.79594315 0.66769089 -0.29315493
O 14.16725051 10.54039774 9.49961753 -0.00104708 0.00114401 0.00161397 0.32599311 0.23004733 -1.22562053
O 14.12428528 1.47531778 2.35380872 0.00099983 0.00299102 -0.00263212 -0.67076253 0.07809677 0.24673906
O 23.40077202 1.33356511 11.81943180 0.00606226 -0.00362747 -0.00750947 0.34474504 -1.13528190 -0.88755108
O 13.68557800 10.53740789 0.13216162 0.00228334 0.00185461 -0.00541441 -0.30303906 0.19504174 -1.79877428
O 15.46808368 6.10400781 2.01110755 0.00062105 0.00319146 0.00004481 -0.25074242 -0.06595883 0.35281938
O 18.99730898 2.56895436 2.35131028 -0.00070657 -0.00357781 0.00149462 -0.53068557 -0.27837576 0.06234895
O 18.67269488 6.10258714 10.61193926 -0.00639113 -0.00082649 -0.00498790 1.39113905 -1.36787696 -0.41209002
O 15.03782512 6.20186277 6.96414384 -0.00744748 0.00266482 -0.00256429 0.05636587 -0.74187240 -1.50740624
O 18.77373561 2.48204048 6.95509324 -0.00221685 -0.00320123 -0.00734977 -0.02251113 0.23945566 1.04904754
O 23.82003235 2.71945751 2.02622952 -0.00267766 0.00391903 -0.00521336 -0.10487202 -0.15037550 -0.07533071
O 23.38592154 6.25796492 10.58044513 -0.00296455 0.00257418 -0.00393383 0.45676841 0.00202480 -0.48330262
O 23.64868534 2.73027300 6.87934134 0.00289170 0.00676440 -0.00536663 -1.03436954 0.22833822 0.49600370
O 15.22711779 10.92273036 2.15745385 -0.00004068 -0.00064213 -0.00186078 0.65714464 1.33901183 -0.15135059
O 18.89265254 10.95960818 10.62088206 0.00076482 0.00488102 0.00454468 -0.80987432 -1.50512518 -0.34086297
O 15.12726374 10.95619367 6.88249731 0.00121927 0.00177735 -0.00687405 -0.08145463 -0.06912420 1.45979220
O 23.63345642 11.00659300 10.39956363 -0.00485796 0.00330292 0.00022168 -1.24456611 0.95071535 0.27112940
Si 15.42208878 4.78594567 3.00368301 0.00049316 -0.00307239 0.00231889 -0.53565956 0.35713118 -1.42499074
Si 19.62497440 2.47560542 0.86653169 0.00131662 -0.00249653 0.00239828 2.40843557 1.63835991 -0.32147478
Si 17.41085894 7.04739136 10.37435985 0.00812176 0.00067981 0.00210641 -1.77375686 -1.82096977 -0.22156743
Si 15.27037338 4.87405010 6.07647258 -0.00086722 -0.00487263 -0.00051834 -0.63455499 0.34523933 -0.78239175
Si 19.55283803 2.52464581 8.41247886 -0.00551920 0.00026114 -0.00448005 1.29360420 -0.65548397 -1.21681220
Si 22.92061696 2.62490301 0.67430711 -0.00127200 -0.00419713 -0.00163017 -1.06875336 1.32181717 0.78684455
Si 12.96053330 7.03704492 10.56959754 -0.00198728 0.00034136 -0.00142047 0.70174166 -2.93592715 -0.00848488
Si 22.84536421 2.69209162 8.28889561 -0.00090131 -0.00397004 0.00325368 -1.00857388 -0.04122756 0.15540887
Si 17.51811072 2.53432828 3.07616170 -0.00532307 -0.00161812 -0.00666678 0.40226663 2.85729657 -0.37158474
Si 15.18220358 6.92491179 0.65136864 0.00053074 -0.00164149 -0.00181743 -0.38430290 0.46336627 -0.94424585
Si 19.53288011 4.70407888 10.57552576 0.00386443 0.00028990 -0.00180820 -1.04945527 -0.12715166 -0.51623069
Si 17.32511829 2.66913559 6.21980762 0.00084743 -0.00317362 -0.00077493 0.41406575 -0.66603262 -0.07892018
Si 15.16904978 7.05979008 8.28709593 -0.00203479 0.00347268 -0.00311689 -0.71587732 -0.86249866 1.26071491
Si 15.19646770 10.17691592 0.67262430 0.00396334 -0.00439976 -0.00472992 -0.08305468 -0.14594009 0.70382420
Si 19.63670005 0.41016377 10.63665575 -0.00193064 0.00074611 0.00098746 1.25203392 0.59438161 0.12305005
Si 15.22158757 10.11509771 8.33030429 0.00440981 0.00034576 0.00082701 0.75664753 1.53266183 -0.70906516
Si 15.14095844 0.45657737 6.13641764 0.00226872 0.00392141 0.00240827 -0.80867201 -0.21130921 -0.43107772
Si 13.04978442 10.18268002 10.57822151 0.00287976 -0.00446897 -0.00123247 -0.25715008 -0.32197066 1.77738073
Si 15.28202221 0.46627868 2.90621016 0.00019145 -0.00049089 -0.00067267 0.16910461 -1.17935761 0.42216890
Si 17.49126026 10.12072047 10.45173573 -0.00111948 0.00356595 0.00185741 -0.39802289 0.10052670 0.53802169
Si 12.99462837 2.66240280 6.03483750 0.00037062 -0.00061189 0.00500958 0.48654063 -1.34244843 -0.22781669
Si 22.88323324 0.49114157 10.50295947 -0.00046927 0.00152028 0.00541687 0.00884157 0.31022730 0.29212539
Si 13.07002305 2.65167648 2.87467036 -0.00135057 -0.00255548 0.00191685 1.46834257 0.57333915 1.04404273
Si 22.65093039 4.76699795 10.44974369 -0.00247698 -0.00061890 0.00504583 1.88489816 1.84096798 0.48551363
147
Time=50.00000000 pbc="T T T" Lattice="23.91741943 -0.00000074 0.00000214 -0.00000037 11.95871544 -0.00000316 0.00000107 -0.00000316 11.95871735" energy=-1150.96011925 virial="-33.55031218 -2.03427897 -6.25047218 -2.03427897 -35.43528434 4.83725596 -6.25047218 4.83725596 -27.74976988" stress="-0.00850291 -0.00042262 -0.00175263 -0.00042262 -0.00942946 0.00135134 -0.00175263 0.00135134 -0.00704978" Properties=species:S:1:pos:R:3:vel:R:3:forces:R:3
O 3.52833334 5.29301039 4.57014751 -0.00407931 -0.00252934 -0.00038858 0.61045433 0.36420144 -0.75507469
O 9.32257058 2.50969034 0.97972907 0.00637557 0.00132950 0.00214157 1.04781634 0.06096106 0.69788121
O 5.83865307 8.61655309 10.67944207 -0.00102040 -0.00657955 -0.00434205 -0.93454532 0.91106172 -0.73662426
O 9.10135531 2.69291801 8.03913873 0.00205845 -0.00126899 -0.00124683 2.32450017 -0.13062176 -0.37894317
O 0.48983371 8.59250609 10.68178009 -0.00331133 -0.00381167 -0.00156737 1.26161904 1.04423086 -0.29261574
O 6.06833214 2.86771157 4.56311634 -0.00168472 -0.00061473 -0.00336296 -0.33685224 -0.01496841 0.24073939
O 3.21573122 8.56108969 1.00940188 0.00301046 0.00268956 -0.00014698 0.40792380 0.85086096 -0.05635072
O 9.11080397 5.15865012 10.51691749 0.00340897 0.00206837 -0.00666395 0.49541866 -0.60872525 -0.46604163
O 2.93133132 8.65217200 7.90582239 -0.00590363 -0.00183529 -0.00464480 0.06064089 1.21847110 0.33980568
O 9.27369347 11.87997642 10.55171103 -0.00215304 -0.00582857 -0.00256621 0.17589377 0.98487114 -0.68084322
O 3.12869172 0.03679458 4.49358741 -0.00084950 0.00037466 -0.00080575 -0.69738226 -0.28885447 1.09748323
O 0.74184891 2.33101610 4.45394545 -0.00352893 -0.00251879 -0.00238354 0.30667942 0.13112134 0.99505595
O 4.68642117 3.93833077 2.52230744 -0.00444907 0.00203268 -0.00370852 0.84482634 -0.73716151 0.24519498
O 7.32435089 3.96552661 0.05882702 0.00197807 0.00490954 0.00297308 -0.24789609 -1.26796081 0.10854479
O 4.38010415 6.57784045 11.68609226 -0.00203735 -0.00343816 0.00525806 0.30490777 -0.07808186 -0.21599850
O 4.47443153 3.79340935 6.55602762 -0.00201742 -0.00196917 -0.00272736 0.09167471 0.43598401 0.06677898
O 7.00283453 3.74822237 9.35725126 0.00307441 0.00156438 0.00060500 0.21941761 0.54997757 0.21058748
O 4.47058888 6.72762476 9.17084029 -0.00111643 -0.00282680 0.00533546 -0.71393559 0.70292848 -1.04710750
O 2.07435397 3.95897284 2.75053139 0.00640137 -0.00556367 -0.00240177 -0.24871922 0.27067297 0.23744317
O 11.16462044 3.90414983 11.69025665 0.00147830 -0.00221276 -0.00932604 0.17028007 0.04102118 0.16017436
O 1.70550166 6.65635074 0.06187103 0.00370381 -0.00108650 -0.00280867 0.29979154 -0.60792590 0.14339434
O 1.86868717 4.11522870 6.13595301 -0.00112838 0.00210557 -0.00050474 0.29379408 -0.12251627 0.34846120
O 11.17012237 4.01039917 9.06195293 0.00029916 -0.00506595 0.00735605 -0.33864764 -0.16279613 0.01711765
O 1.82106025 6.65152285 9.36145257 0.00040646 -0.00083105 -0.00144684 0.98053462 0.03278952 -0.84269198
O 4.81796561 1.22991789 2.81643924 -0.00089303 -0.00536318 0.00330040 -0.33542663 0.21834559 0.41943544
O 4.38141127 10.69018470 11.56689618 -0.00486901 0.00223098 0.00211433 -0.58679977 -0.51485330 0.65215410
O 7.41375202 1.10777784 0.01102319 -0.00243956 0.00137780 -0.00520281 -0.61410670 1.40881754 0.03236334
O 4.65396938 1.19571244 6.27087718 0.00118525 -0.00462208 -0.00576022 -0.14913959 -0.09224200 -0.40286589
O 4.64423277 10.47240623 8.93345027 0.00733954 0.00477529 -0.00060762 -0.75750919 -0.42419552 0.31708730
O 7.25891812 1.20300284 9.19622872 0.00509033 -0.00277649 0.00302721 0.10434820 0.65096627 -0.52085635
O 2.08994187 1.52896347 6.58734253 0.00661847 0.00488893 0.00483765 -0.86607283 0.01238341 0.53453882
O 11.15500331 1.35100793 9.08907159 -0.00623207 0.00013708 0.00061981 -0.03719723 -1.33853442 0.74623680
O 2.00974994 10.56712452 9.44121764 -0.00390197 0.00377656 0.00019886 -0.70724895 0.24130637 0.06064229
O 2.25709927 1.40637330 2.35801159 -0.00112600 -0.00042779 0.00417586 -0.84574251 -0.38672753 0.32347078
O 11.27949476 1.25949894 11.72521791 -0.00692239 0.00407803 -0.00170805 0.64287108 -1.83199642 -1.05169438
O 1.82298001 10.62937123 0.07603805 0.00107649 0.00094788 -0.00114214 -0.84684968 -0.72813992 -0.76682815
O 3.42139290 6.18328699 2.11975046 -0.00240429 0.00021829 -0.00174352 -0.49123681 0.09693556 -0.40844735
O 6.95432921 2.55679667 2.19237187 -0.00531465 -0.00429483 -0.00402060 0.76484596 0.01340089 -0.30693631
O 6.73024712 6.14246857 10.54279462 -0.00329091 0.00453853 -0.00865971 -1.20913689 0.54530096 0.00324865
O 2.97542580 6.26185445 7.00434054 0.00005997 0.00247872 0.00522773 0.89893700 -0.79797535 0.15519910
O 6.76509003 2.35402457 6.98795665 -0.00123585 0.00109331 -0.00242470 0.57361890 0.61172706 0.44335086
O 11.78155788 2.70267445 1.98086548 -0.00014445 -0.00649868 0.00325391 -0.71871384 -0.29496363 -0.74216302
O 11.54861790 6.20205301 10.32954681 0.00192373 -0.00434646 -0.00190443 0.06583017 0.04949121 0.48234246
O 11.54426437 2.78007382 6.85863697 0.00604323 0.00111139 0.00143356 0.39109088 -0.63579603 -0.43267782
O 3.63358307 10.99406129 2.02325966 0.00243641 -0.00064227 -0.00092926 -0.67335319 0.74455134 1.34159357
O 6.76195007 11.03234559 10.53561924 -0.00035728 0.00320097 0.00177650 -0.24048713 -0.32306938 -0.28837097
O 3.00738769 11.12609253 6.95486599 0.00356248 0.00944302 -0.00412612 -0.17499881 -0.96876470 0.90307654
O 11.69537349 10.94309911 10.25609238 -0.00146248 -0.00037500 0.00011515 1.06758861 -0.53517445 0.39808226
Si 3.41918952 4.81831366 3.01233740 -0.00317902 0.00390533 -0.00209881 -0.34556723 0.61412568 -0.01725465
Si 7.75070308 2.51476935 0.79270703 0.00253001 -0.00173523 0.00088935 -1.16816050 0.68173460 -0.83126875
Si 5.36726608 7.07848476 10.49137127 -0.00045940 -0.00190296 0.00487232 1.11455672 -0.66480596 0.88394549
Si 3.33977483 4.90840860 6.11895608 0.00153072 -0.00145280 -0.00243827 -1.43256006 -0.75397630 0.41236159
Si 7.56889046 2.58797683 8.35939569 -0.00078562 0.00235797 0.00352465 -1.57942989 -0.42612642 0.72015987
Si 10.89147357 2.54165567 0.60178557 0.00940862 0.00224390 -0.00036450 0.24891393 1.86003026 1.00627452
Si 0.93191987 7.00413658 10.64230023 -0.00127247 0.00444384 0.00137019 -0.21564415 2.12277474 0.64087142
Si 10.72927218 2.65513316 8.25714486 -0.00187932 0.00614408 -0.00134053 -0.09182989 1.18757354 -0.23746042
Si 5.59718163 2.66350241 3.02532450 -0.00116868 0.00421069 0.00017966 -1.14431690 -0.72134738 -0.50885782
Si 3.17278338 6.97225608 0.71013952 -0.00207886 0.00165503 0.00464154 -0.04647837 -0.23360347 1.13303827
Si 7.50299866 4.72310221 10.59084228 0.00283830 -0.00351053 0.00126826 1.40452654 0.30130898 -0.55944030
Si 5.49693157 2.58915805 6.05423750 0.00391190 0.00085960 -0.00310852 -1.21544946 0.29959263 0.53955093
Si 3.03092497 7.13542896 8.38981169 -0.00505057 0.00001467 0.00194258 0.62545912 -1.47749369 -0.68866974
Si 3.27002221 10.15556910 0.69564979 0.00154600 0.00087332 0.00291807 -0.41769435 0.65323609 -0.52484458
Si 7.65261493 0.42169898 10.51968272 -0.00615287 -0.00003960 -0.00328970 1.98979691 -1.81836656 0.92604970
Si 3.08795759 10.25001592 8.32172287 -0.00484534 -0.00221654 0.00268588 2.33935583 -0.79116835 -0.64795592
Si 3.19077944 0.49208322 6.07557810 -0.00157793 -0.00253997 -0.00221081 1.57236170 -0.01135766 -0.99945975
Si 0.98841374 10.17633019 10.63958005 -0.00250474 0.00260354 -0.00562241 0.64879449 -0.92472565 1.76395121
Si 3.38605487 0.38138156 2.95384596 -0.00203883 0.00382530 0.00298582 1.42241404 0.90065344 -1.57376395
Si 5.37038355 10.23199603 10.40142416 -0.00115251 0.00061619 0.00126017 0.92237722 -1.31684082 -0.64098634
Si 1.10308079 2.68189218 6.06278112 -0.00292397 -0.00465463 0.00342789 -1.53550200 1.34447455 -1.17981732
Si 10.89472733 0.34735325 10.39232093 0.00434391 -0.00078972 -0.00028409 -2.40806285 1.58515814 0.21710830
Si 1.21841286 2.57682265 2.90332436 -0.00007696 -0.00063896 -0.00414002 1.17997233 -0.06292662 0.55312742
Si 10.73824690 4.81195089 10.41034091 -0.00419570 -0.00109364 -0.00264454 -1.43399355 -0.29812080 0.02218381
Au 7.34735568 5.25153582 5.57967709 0.00112155 0.00034616 0.00303223 -0.48758705 -0.07163001 -0.05181907
Au 6.03877046 6.27620080 7.55679269 -0.00289434 0.00027100 0.00065255 0.88202685 -0.52911288 -0.58038502
Au 9.00991174 5.60469321 7.47837928 0.00405988 0.00220969 0.00066948 -0.41123633 0.12234297 0.56454481
O 15.44056410 5.18520945 4.49228592 -0.00658759 -0.00538712 -0.00711872 0.63899433 -0.18854506 0.37135920
O 21.36450131 2.53434817 1.06671527 0.00465969 -0.00568281 0.00669740 -0.06668897 -0.08121566 0.33528911
O 17.87314587 8.54876254 10.68315697 -0.00127983 -0.01013137 -0.00246404 -0.46809617 0.55627316 -0.03399596
O 21.14273654 2.65115303 8.06257839 0.00480483 0.00014818 0.00164813 2.72879260 -0.71482709 -0.57639725
O 12.59711948 8.54020166 10.36320016 0.00084254 -0.00556218 -0.00292442 0.71710463 0.98894566 0.53132810
O 17.69512169 2.82128436 4.55691251 -0.00380913 -0.00580697 -0.00330547 -0.07837840 -0.27428569 0.44421664
O 15.19012400 8.50815871 0.88586788 0.00686568 0.00240692 0.00122117 0.26323955 1.00456362 0.53865120
O 21.15427294 5.11430143 10.49451404 0.00467700 -0.00120082 0.00053469 -0.67246940 -0.16803010 0.41424383
O 14.98091949 8.61738273 7.92349222 -0.00065239 -0.00484250 0.00199807 0.50774444 0.03989234 0.31723092
O 21.26363423 0.32027483 10.71248387 0.00088558 -0.00273439 -0.00260599 -1.70673151 -0.18098779 -0.46223759
O 15.05607445 0.23894880 4.52896404 -0.00465115 0.00105647 0.00058964 0.04887161 -0.60192818 -0.40235787
O 12.60294190 2.34544923 4.47776550 -0.00081559 -0.00119671 0.00147015 0.29410259 0.18142182 -1.70706272
O 16.56850214 3.85332263 2.39261084 -0.00952784 0.00023569 -0.00531845 1.12532836 -1.07404785 0.20931290
O 19.32144444 3.83995939 0.00943620 0.00011902 0.00108082 0.00384272 -0.23478825 0.08647150 -0.19465098
O 16.35921819 6.50399258 11.55953176 0.00194153 -0.00011182 0.00032880 -0.42956762 -0.02053157 0.30563405
O 16.59665543 3.97475320 6.67297221 -0.00179215 0.00073871 -0.00034686 -0.59024042 0.20397129 -0.46811804
O 19.24085975 3.76813177 9.24714804 -0.00145098 -0.00731947 0.00058711 -0.79553612 1.37512590 0.82431721
O 16.68774572 6.72526517 8.94732050 -0.00407333 0.00252896 -0.00173640 -1.55880752 0.52689257 -0.50247067
O 13.93393175 4.05235941 2.72609761 0.00157234 -0.00473064 -0.00312125 -1.42994753 -0.96600390 -0.11329362
O 23.21738597 3.96359443 11.79674749 -0.00123226 -0.00033334 -0.00591015 -0.13563009 1.47066731 -1.01437966
O 13.69407014 6.66977659 11.92544797 0.00129520 0.00155061 -0.00242959 -0.27125975 -0.81854955 0.43180924
O 13.88672524 3.88283206 6.17850543 -0.00115960 -0.00332187 -0.00010390 1.25609603 1.19934946 0.33872611
O 23.09925945 4.03066922 9.14694285 -0.00851063 -0.00898937 0.01244494 0.43399024 -0.01281026 -0.01148773
O 13.96454428 6.54942761 9.31800779 0.00466627 -0.00113572 -0.00414509 0.68746428 -0.44525485 -0.64288924
O 16.67803536 1.18688876 2.63460121 0.00305644 0.00097995 0.00124094 -0.66707171 -0.44736075 0.48698225
O 16.44817011 10.57969850 11.74565163 -0.00105249 0.00113781 0.00333804 -0.14159098 0.17518274 0.08629631
O 19.31620808 1.10415115 0.19112841 -0.00171643 0.00339205 0.00231730 -0.08626312 0.77637673 -1.35695731
O 16.52695386 1.27260763 6.57569158 -0.00324022 0.00031406 0.00202873 0.26893105 0.67926330 -1.03434955
O 16.78276228 10.26424386 9.04493331 0.00663537 -0.00136531 -0.00309742 0.18528570 0.83775062 0.33704303
O 19.16012871 1.26543792 9.28431842 0.00539461 -0.00013599 0.00389992 0.32358082 -1.26444543 0.95389514
O 13.86309570 1.33674593 6.63138940 0.00086245 -0.00082635 0.00252329 -0.17536222 -0.48466741 -0.13027332
O 23.30195583 1.36584091 9.17045499 0.00106499 0.00195909 0.00134418 -0.89305973 -0.95261083 0.77277985
O 14.17349772 10.59446220 9.38283061 -0.00571319 0.00336488 -0.00161374 -0.84876556 0.17128633 0.62503988
O 14.08965399 1.44920198 2.36736869 -0.00341516 -0.00633868 0.00347166 -0.69712129 -0.18299026 0.12803181
O 23.52215100 1.36297371 11.82856356 -0.00198492 0.00133761 0.00243137 -1.22850124 -1.70996599 -1.60201172
O 13.82894398 10.57545097 11.92247465 0.00567279 0.00035178 -0.00336989 -1.91770624 -0.31677018 -0.75172642
O 15.41922647 6.13507146 2.03745905 -0.00558454 0.00293607 -0.00350053 -0.55868938 0.59897195 -0.84145535
O 18.95546004 2.45803701 2.30149453 -0.00061907 -0.00188932 -0.00636964 -0.19826694 0.91105831 0.08746981
O 18.68920294 6.01697058 10.47322282 -0.00326164 0.00484123 -0.00433179 0.10522032 -0.15304588 0.36769003
O 14.92982069 6.22741387 6.85457585 0.00092877 0.00207635 0.00299898 0.92884818 -0.73263234 0.63597515
O 18.78030185 2.44779399 6.94386318 -0.00119236 0.00056550 -0.00187004 0.04447872 0.26693941 -0.30882068
O 23.82756664 2.72340544 2.01981900 -0.00148071 -0.00360787 0.00157673 -1.05260530 -0.16408881 -0.46681695
O 23.43275755 6.31645757 10.46538030 0.00431375 0.00051516 -0.00305222 -0.46312744 -0.60633653 0.28303384
O 23.57205558 2.85014507 6.90518594 0.00082215 -0.00086699 0.00109575 1.19714957 -1.00081730 -0.55397822
O 15.28830303 10.99278696 2.03448639 0.00180787 0.00173775 -0.00427295 -0.33372155 0.34253794 1.59959855
O 18.86310450 10.97562251 10.66787695 0.00316865 0.00547724 -0.00054024 -0.30163018 -0.06666365 -0.32762548
O 15.18732758 11.03457302 6.94775941 0.00404434 0.00915078 0.00253992 0.18093182 0.18417562 -0.48631096
O 23.53761124 10.98954060 10.50636119 -0.00354783 -0.00271801 0.00666052 -0.83516883 0.91598852 -0.15076614
Si 15.34718700 4.77013115 2.90909254 -0.00497078 0.00290819 -0.00483097 0.32137500 0.99670449 0.87250881
Si 19.76635293 2.54605799 0.88467260 0.00313099 0.00329061 -0.00056969 -1.10727449 -1.32122181 -0.01049029
Si 17.39169492 7.01020272 10.41278236 -0.00281770 -0.00212117 0.00248992 0.53187069 -0.48539621 -0.35771111
Si 15.28246360 4.80682642 6.08896042 0.00017792 -0.00364611 0.00191917 -1.40085717 -0.20421180 -0.58555596
Si 19.59518087 2.51400260 8.32976255 0.00624489 0.00140733 0.00213306 -0.76530265 -0.20706279 0.69981440
Si 22.91787517 2.62270760 0.66361155 0.00576293 0.00210645 0.00267905 1.23324178 0.37484702 1.18401994